1000 7 1 50000 0.332713
 -1.465502 1.045300 2.485708 -0.799354 -0.676492 -2.396127 -0.720382


1 1.000000 -1.584072 5.032208 7.339915 0.154074 0.735374 -2.882444 -3.281078
2 1.000000 -3.620547 3.390262 3.596330 0.792873 -0.822785 -2.875461 0.540273
3 1.000000 -1.534405 -0.297697 -0.167881 1.337983 2.747196 -2.245292 -1.719066
4 1.000000 -1.031275 -0.073586 -0.188094 -0.864067 0.194780 0.930994 5.440523
5 1.000000 -0.877809 -0.841235 -0.066174 -0.494638 2.500079 -1.759582 0.176429
6 1.000000 -0.709763 2.280236 1.611710 -3.704372 -3.533732 -1.276332 0.680257
7 1.000000 -0.320961 1.642425 3.916955 -4.704504 -6.067231 -3.330586 -3.427211
8 1.000000 -1.226867 0.613796 4.109909 0.801291 0.066422 -6.539009 -7.380758
9 1.000000 -2.178116 0.367127 2.725495 -1.739966 -2.221300 -2.094994 1.318379
10 1.000000 -0.367434 -1.632395 3.945361 -0.484001 -0.009755 -4.125791 -0.283220
11 1.000000 -2.479232 2.183826 3.888608 -2.848753 -1.849913 -1.865197 3.719089
12 1.000000 -1.300701 0.394542 3.767110 -2.669203 -1.574965 -4.062557 -4.071581
13 1.000000 -1.280925 0.860959 2.099375 -0.314119 -0.544925 -3.482242 -4.111788
14 1.000000 -1.029702 3.109076 3.506195 -0.437513 -1.723616 -2.982847 -1.519788
15 1.000000 -1.172746 -0.344471 -1.166467 -1.190971 -1.432591 -2.454213 0.510618
16 1.000000 -2.666778 -0.278424 -0.695820 -0.585239 -2.560315 -3.565146 -2.495375
17 1.000000 -1.457865 0.953848 0.930647 -0.519815 0.759052 -4.737266 -4.420289
18 1.000000 -0.866914 -0.356186 3.310538 -1.951248 -1.238900 -1.409092 2.460689
19 1.000000 -1.409101 1.832160 4.366767 -2.659262 -2.392342 0.380819 4.775188
20 1.000000 -1.892806 2.256435 2.645678 -0.015310 -0.614414 1.022166 0.906176
21 1.000000 -1.566620 1.726518 2.907483 -1.199404 0.175811 -2.347940 -1.016391
22 1.000000 -2.300911 -0.970192 -1.335146 -1.797950 -2.129711 -2.557907 -1.296738
23 1.000000 -1.698556 -0.277720 -1.279777 -0.879655 -2.031068 -0.601587 -0.913084
24 1.000000 -2.470908 0.236060 4.267609 0.977515 3.773041 -1.733507 -0.318032
25 1.000000 -1.380978 1.084515 0.931141 -2.318562 -0.076052 -2.689365 -0.421797
26 1.000000 -0.828805 0.219257 0.099554 -2.596404 -2.644894 -2.247340 -2.112376
27 1.000000 -1.702487 -0.356545 1.878071 0.878808 2.469891 -1.900260 0.112130
28 1.000000 -0.789083 -0.788699 -0.164792 -1.522920 0.234230 -4.846266 -5.543111
29 1.000000 -0.928386 1.616900 4.283316 -2.584975 -2.845550 -2.724293 -1.580657
30 1.000000 0.151666 -0.730153 1.906526 -2.240318 -0.674257 -1.299105 -1.012591
31 1.000000 -0.838112 -0.530390 1.464145 -1.878929 -0.617024 -3.340806 -0.853107
32 1.000000 -0.815718 -0.114508 0.345441 -2.398986 -1.453763 -3.871444 -3.100456
33 1.000000 -0.948764 -0.363973 2.066086 -2.460108 -3.507716 0.309002 2.854424
34 1.000000 -0.486615 0.390844 3.304265 -1.114268 -1.123032 -2.358579 -0.230544
35 1.000000 -1.472209 3.211818 2.406195 0.122264 1.452107 -2.936840 -0.489760
36 1.000000 -0.877450 1.300541 3.967268 -1.109014 -1.926833 -4.743773 -4.521213
37 1.000000 -0.932460 1.681328 4.846220 -2.843467 -3.498712 -3.822796 -4.129180
38 1.000000 -1.405644 2.250533 3.124264 0.317289 0.599490 -2.563170 -1.432150
39 1.000000 -0.845097 1.717574 2.629748 -0.492746 -0.701980 -4.177338 -1.574551
40 1.000000 -1.371331 3.112840 4.121647 -1.683405 -0.741244 -1.727785 -0.267275
41 1.000000 -2.471456 3.484789 1.797322 -0.989114 0.738881 -2.168999 -1.849704
42 1.000000 -2.981733 0.660782 -1.198778 -0.666341 -1.741445 -3.720640 -3.087423
43 1.000000 -1.178373 1.188950 3.690964 -2.072222 -3.820362 -2.032374 -0.110452
44 1.000000 -1.769987 -0.862228 1.745655 -0.196771 -0.303295 0.389440 0.002530
45 1.000000 -2.649016 1.963331 2.052008 -1.434625 -2.512095 -5.818469 -4.045680
46 1.000000 -2.165192 2.328894 3.937195 -1.000240 -0.863103 -1.191272 0.390758
47 1.000000 -1.670541 2.846198 2.177609 -3.997420 -2.606997 -3.699426 -1.971723
48 1.000000 -1.437317 0.979519 1.880946 0.534463 -2.031926 -2.596554 -2.115053
49 1.000000 -2.466886 2.560984 6.337422 0.185056 0.722724 -3.269568 -0.445571
50 1.000000 0.273010 0.408844 -1.364305 -1.897119 -3.363310 -3.282810 -0.906010
51 1.000000 -1.371167 0.516890 -1.898221 -3.736595 -3.431589 -4.358934 -4.648260
52 1.000000 -2.349608 -2.356475 -1.054979 1.032654 2.379615 -2.998202 0.411650
53 1.000000 -1.889376 0.997609 3.217428 -3.372313 -2.965455 -1.322625 -1.461929
54 1.000000 -2.107833 1.606932 2.286834 -0.003815 -1.594240 -2.864005 2.130012
55 1.000000 -1.327446 1.447010 0.809582 -2.604241 -1.636037 -1.532932 -0.090926
56 1.000000 -1.992918 0.889088 0.699726 0.053396 -1.349218 -3.858695 -2.228130
57 1.000000 -1.970735 3.069989 4.443254 0.523837 1.877365 -4.225379 -2.708239
58 1.000000 -2.199110 1.310486 2.936100 -1.707251 -1.266408 -2.122724 0.064129
59 1.000000 -0.623708 0.680123 -0.450081 -0.532103 1.389714 -3.696304 -4.293660
60 1.000000 -0.631253 1.772721 4.739939 -0.210083 -0.663135 -3.397421 -1.054155
61 1.000000 -1.398492 0.029241 0.359997 -1.219429 -0.758607 -2.412135 -0.951571
62 1.000000 -1.561896 -0.183832 2.195871 0.064518 0.836140 -2.959409 -1.915929
63 1.000000 -1.400302 3.790558 3.113079 -0.397709 -0.049889 -1.073704 -0.248174
64 1.000000 -1.682294 0.975545 0.379645 -3.074393 -1.714942 -2.622015 -2.927603
65 1.000000 -1.298003 -0.411078 0.977858 -0.255099 -1.690420 -0.443893 -0.139059
66 1.000000 -0.886141 1.517026 4.724000 -1.525182 -2.515186 -2.902356 -0.208856
67 1.000000 -2.020709 0.921649 2.577338 -1.584722 -0.405112 -1.785251 2.073224
68 1.000000 -0.341823 2.349200 3.732077 -0.296009 1.595314 -3.370397 -3.024376
69 1.000000 -0.932632 0.329381 1.949275 -1.328670 -2.202533 -0.200874 1.712757
70 1.000000 -2.280550 1.787837 1.083011 -3.137183 -1.324209 -5.503379 0.083948
71 1.000000 -1.096874 2.257301 3.180635 -0.695406 0.372025 -3.360339 -4.839549
72 1.000000 -0.823107 1.495574 1.736316 -1.486849 -0.714634 -2.900079 -2.565134
73 1.000000 -1.270669 -0.792489 0.543999 -2.091888 -1.734339 -3.551097 -1.291114
74 1.000000 -1.629272 2.113207 1.339542 -1.607621 -2.722614 -1.757613 -1.421011
75 1.000000 -1.950830 0.482611 2.726394 1.194225 1.293304 -2.657112 -0.063457
76 1.000000 -2.137265 1.038083 2.976723 -0.721817 1.088395 -1.731494 -4.927548
77 1.000000 -1.069361 2.034584 5.372241 1.404875 2.723815 -1.308331 2.033823
78 1.000000 -1.626673 2.158124 4.524178 -1.298219 -4.127021 -0.664099 1.235785
79 1.000000 -2.796405 -0.236608 0.750674 -0.293373 -1.372418 -3.798072 -1.727480
80 1.000000 -1.118699 1.462766 1.719935 -2.080917 -0.182016 -3.043021 -0.794417
81 1.000000 -1.819508 -2.521624 0.909386 1.795679 2.794906 -5.344204 -1.366659
82 1.000000 -1.496659 0.199398 0.793167 -1.732265 -0.517916 -4.145559 -2.298359
83 1.000000 -2.190122 2.337005 1.821360 -0.071318 -2.188193 -2.065671 -1.479433
84 1.000000 -1.569255 0.758089 1.522328 -0.617180 -1.713138 -1.835221 -1.685720
85 1.000000 -2.290793 0.259362 -0.889036 1.098926 1.754292 -1.512728 -0.321829
86 1.000000 -0.926540 1.233784 -0.050378 -0.264572 -1.534914 -4.333978 -3.089317
87 1.000000 -2.000198 0.304546 3.605747 -2.474955 -2.802429 -3.563038 -3.654201
88 1.000000 -2.738721 0.809953 2.448860 -0.649096 -1.802153 -0.743230 1.024702
89 1.000000 -1.883738 2.034335 3.045865 -3.222142 -4.188292 -3.064093 -4.336245
90 1.000000 -2.346749 0.723429 3.378914 -2.844784 -4.490136 -2.930861 -0.765362
91 1.000000 -1.787447 -1.159142 0.448742 1.532192 1.461332 -4.315568 -4.254848
92 1.000000 -1.739454 4.036765 6.113919 1.427507 1.299878 -1.922252 -1.112833
93 1.000000 -0.324346 2.673377 4.346275 -1.031361 1.733778 -1.619104 -2.248863
94 1.000000 -0.422730 0.894078 4.730406 0.064323 0.654111 -5.073025 -2.272578
95 1.000000 -1.779890 0.662780 0.974910 -0.297495 -1.321271 -0.745667 -1.184579
96 1.000000 -2.337055 1.094740 0.256523 -0.068075 1.566167 -2.515539 1.160117
97 1.000000 -1.915117 -0.791767 -0.521967 -0.476590 -0.430365 -3.915736 -1.699330
98 1.000000 -0.589504 -1.276060 -1.365276 1.084245 -1.540139 -0.502316 1.355559
99 1.000000 -3.088620 0.161049 1.428751 1.003688 1.379150 -4.121440 -1.592427
100 1.000000 -1.564519 2.155425 1.900144 -2.738324 -2.107020 -1.934949 0.568172
101 1.000000 -2.692084 3.279102 3.295075 0.632251 -0.753070 -2.875067 -3.054965
102 1.000000 -1.816546 -0.280199 -0.433344 -0.747908 -1.630501 -1.010432 -0.423967
103 1.000000 -2.257276 -0.123343 -0.647701 -1.607511 1.594239 -0.034845 -0.158181
104 1.000000 -0.290440 0.374207 -0.031862 -0.546108 -3.068810 -3.091403 -2.843124
105 1.000000 -1.270645 -1.924048 0.549701 -3.035175 -1.805175 -2.477608 -2.142442
106 1.000000 -0.937405 -0.244460 1.295080 -1.905951 -3.083244 -2.492421 -3.114523
107 1.000000 0.119756 0.476201 5.613807 0.602329 -0.329572 -3.554233 -3.588065
108 1.000000 -2.022363 3.284144 6.168110 -0.132572 -2.224580 -4.003698 -5.675483
109 1.000000 -2.462506 2.101353 3.435590 0.689333 0.734308 -3.017721 -1.238547
110 1.000000 -0.834357 1.310323 0.111686 -1.684566 -5.316161 -2.996968 -3.232231
111 1.000000 -1.641279 1.511561 3.868918 1.527875 0.799125 -1.343646 -1.068048
112 1.000000 -2.470219 1.487503 2.090128 -2.709584 -3.086329 -3.448069 1.224909
113 1.000000 -1.455474 -0.099001 1.734076 -1.817263 -2.339338 -4.313038 -0.207150
114 1.000000 -1.648567 0.377922 2.135466 -3.369968 -1.165411 0.211130 2.700492
115 1.000000 -0.703963 2.340077 2.328321 -2.595767 -4.476536 -4.922845 -4.307188
116 1.000000 -1.621791 0.909782 0.466557 -2.168200 -1.925885 0.159404 2.366089
117 1.000000 -1.459403 0.049650 0.943920 -1.936319 -1.688677 -5.449968 -5.733956
118 1.000000 -0.325600 1.190757 2.314269 2.495230 3.113220 -0.962187 -1.495936
119 1.000000 -1.103307 1.689898 7.597322 -2.132661 -1.471853 -3.322444 -2.184259
120 1.000000 -0.558455 4.331269 5.059946 -1.830750 -3.622634 -1.305707 0.296312
121 1.000000 -1.760103 0.562034 1.692798 -0.887991 -2.370593 -2.581043 -1.489196
122 1.000000 0.004581 0.575459 0.483504 -0.798503 0.336659 -3.349823 -0.197765
123 1.000000 -2.513918 0.831660 1.989459 -1.721231 -1.142387 -1.380102 0.654483
124 1.000000 -0.948523 0.775801 1.325502 -2.013620 0.056474 -4.046461 -2.164743
125 1.000000 -1.726789 2.142605 -1.289873 -0.980280 -2.208084 -2.174209 -0.454378
126 1.000000 -2.344687 0.194005 1.748985 -3.911919 -3.597023 -1.659297 1.289076
127 1.000000 -1.273396 1.573162 3.008609 -1.791508 -0.535587 0.238829 2.117840
128 1.000000 -2.047944 1.560040 1.986907 -0.658517 -1.261442 -1.990098 0.558484
129 1.000000 -1.865867 0.754594 2.028805 1.271541 -1.563829 -4.263843 -2.292661
130 1.000000 -1.387306 -1.780430 -0.501133 0.246071 1.738393 -0.576022 1.694327
131 1.000000 -2.625706 0.490435 1.054584 -1.179221 -0.442806 -4.163852 0.844134
132 1.000000 -0.331322 -0.813753 2.200791 -2.486541 -3.102162 -2.406189 -0.682501
133 1.000000 -1.474841 1.855786 3.989696 -1.129591 -0.407665 -5.020706 -4.247829
134 1.000000 -2.058914 -0.046160 3.985866 -0.668287 0.759327 -1.883353 -1.117742
135 1.000000 -0.439541 1.326064 4.889544 -3.212737 -2.730715 -4.413244 -2.228174
136 1.000000 -1.466554 0.882056 1.649042 0.395959 -2.571991 -2.101005 -1.839942
137 1.000000 -1.025754 0.230629 1.443417 1.178716 1.214249 -1.351099 -1.546784
138 1.000000 -1.050815 1.651850 2.805579 -1.045538 2.455122 -4.083697 -2.019692
139 1.000000 -2.240211 -2.229859 1.468150 -0.052247 -0.644198 0.265002 1.240981
140 1.000000 -1.678674 2.448275 3.329002 3.399095 2.028615 -4.249929 -1.857654
141 1.000000 -0.811255 -1.272635 2.466573 -0.142020 1.002966 -1.935728 -0.379794
142 1.000000 -1.388652 2.837634 5.403123 0.189697 -0.922291 -2.372885 0.043000
143 1.000000 -1.804322 -0.745348 0.662813 -2.132263 0.723241 0.512952 0.359173
144 1.000000 -2.110543 -1.426143 -1.248471 -1.266629 -2.155477 -3.408809 -1.710068
145 1.000000 -0.992032 1.322415 6.263251 -2.059706 -2.210949 -0.496104 0.875211
146 1.000000 -1.950965 1.659268 2.463048 1.275312 1.849917 -3.024064 -1.326685
147 1.000000 -1.830268 -1.221002 1.388375 -0.391132 -1.885280 0.216597 2.544296
148 1.000000 -1.221231 3.703049 2.757650 -2.396629 -1.017490 -2.437896 -0.514455
149 1.000000 -1.000766 0.712541 1.665460 -2.315546 -1.624577 -1.462349 0.190001
150 1.000000 -1.317178 2.811426 1.137188 0.047194 1.102615 -3.494828 -2.722231
151 1.000000 -2.606433 0.988171 0.612527 1.494141 1.509644 -0.371690 0.910730
152 1.000000 -1.687315 -0.773107 3.778452 0.530333 2.985456 -5.234935 -4.508192
153 1.000000 -2.077333 0.947929 3.652765 -1.510883 -3.135203 -2.232640 1.241528
154 1.000000 -2.674886 1.067768 3.406352 -1.374282 -0.073282 -1.950401 -0.442244
155 1.000000 -1.434201 -0.284589 1.557253 2.113617 4.455947 -1.810055 0.676699
156 1.000000 -0.454012 1.181371 2.191491 -1.559120 0.430849 -5.135040 -3.777179
157 1.000000 -2.698896 2.347295 1.343414 0.714798 1.452849 -0.594047 -1.999027
158 1.000000 -3.030771 2.889050 2.290716 -3.054774 -1.988924 -2.229163 0.606537
159 1.000000 -1.141679 -1.626941 1.618699 -1.391325 -2.329331 -4.301407 -3.986645
160 1.000000 -1.526352 -3.528406 -1.753552 -1.867987 -0.906185 -3.690356 0.783561
161 1.000000 -1.727287 2.244163 3.664345 -1.482365 -0.256170 -2.610073 -2.302264
162 1.000000 -1.306991 -1.592825 0.919527 -5.049348 -2.951011 -0.224987 -0.520009
163 1.000000 -1.009092 2.163461 3.539403 0.980914 0.094158 -0.576573 -1.749033
164 1.000000 -2.009454 2.298945 4.997674 -1.986354 -0.821109 -2.850806 1.600142
165 1.000000 -0.758340 0.154964 1.224716 -1.451887 0.020661 -2.796291 -1.638531
166 1.000000 -0.986792 2.450567 5.044843 -1.016582 0.168247 -0.785539 2.915533
167 1.000000 -1.785383 1.378587 2.653064 -0.193674 -2.263861 -3.302035 -1.077327
168 1.000000 -1.285193 3.101989 7.124545 -4.108285 -4.873658 -3.781182 -4.457952
169 1.000000 -2.603244 3.858718 4.876889 -1.052469 -0.670864 -1.681877 1.136524
170 1.000000 -0.851581 3.247506 2.593986 -0.152182 2.645758 -0.836096 0.533120
171 1.000000 -1.099831 -0.974594 -0.298897 -2.488696 -3.602748 -2.042178 0.445491
172 1.000000 -2.445622 0.190678 1.443035 -2.146965 -2.762300 0.232701 1.475571
173 1.000000 -2.163553 3.092423 1.923309 -0.079490 2.056474 -1.513399 -2.324124
174 1.000000 -0.041677 0.879589 -1.471817 -1.668437 -2.498786 -2.483222 -0.357137
175 1.000000 -0.234389 1.061394 0.045102 0.112544 -0.950615 -0.843894 0.375010
176 1.000000 -0.364004 -0.426384 2.395924 -0.500629 -2.053527 -1.898539 2.378309
177 1.000000 -0.447694 2.057854 2.807959 -2.280914 0.000677 -5.805229 -3.864863
178 1.000000 -1.442296 2.712499 2.529236 -1.238253 0.344074 -2.338637 0.620076
179 1.000000 -1.606912 -0.314222 1.585316 -0.655638 -1.038981 -3.504850 -1.706596
180 1.000000 -1.164364 0.837558 4.255517 -2.786601 -1.445075 -5.107093 -1.846774
181 1.000000 -1.030309 -0.935375 -0.982812 -2.317355 -0.915101 -1.173366 -2.853485
182 1.000000 -0.692872 1.611940 6.234530 -2.816698 -1.619933 -2.924511 -2.803661
183 1.000000 -1.687439 -0.748622 3.532114 0.959671 2.479291 -2.036043 -1.269929
184 1.000000 -1.287352 2.512308 4.034043 -4.088609 -2.057490 0.591801 1.534069
185 1.000000 -0.137228 0.607944 0.818170 -0.697865 -2.283446 -0.000894 -0.082818
186 1.000000 -1.200435 2.418309 4.280536 0.599682 0.535986 -4.008823 -2.362292
187 1.000000 -2.022458 -0.879646 1.363232 -0.662117 -0.260697 -3.319108 -2.099358
188 1.000000 -0.774495 0.908138 3.775852 -1.448487 -1.418909 -2.146592 1.365385
189 1.000000 -1.721385 1.559687 4.931206 -1.857544 -0.058157 -2.706930 -2.413762
190 1.000000 0.251228 1.175769 3.117670 0.640423 1.173265 -3.327362 -2.205349
191 1.000000 -0.562258 0.090855 1.506317 -1.501289 0.213882 -3.248479 -1.667825
192 1.000000 -1.171821 0.404375 2.970010 -1.812606 -1.399956 -2.957262 -1.226654
193 1.000000 -1.116532 4.380860 5.979091 1.128115 1.568647 -2.411766 -2.003188
194 1.000000 -2.056160 3.061101 3.663965 0.912618 -1.134456 -2.096936 0.368533
195 1.000000 -1.509691 1.209868 3.342244 -0.636127 -0.371316 -3.779637 -2.921396
196 1.000000 -2.642713 0.718913 1.072382 3.179533 2.261427 -4.613179 -2.735802
197 1.000000 -1.812453 -0.329393 0.478265 3.298803 2.743257 -2.416090 1.537865
198 1.000000 -0.706262 -2.193145 -0.662360 -1.708298 -1.367906 -2.386098 1.093865
199 1.000000 -2.340842 -0.646099 3.447937 -3.146119 -1.681420 -4.768200 -3.193771
200 1.000000 -0.842172 4.284678 5.718217 0.687566 0.667006 -3.335366 -1.878516
201 1.000000 -1.310789 -1.837460 -0.390499 -2.241703 3.514081 -2.711184 -0.620025
202 1.000000 -1.918612 0.921015 0.808804 -1.313987 -2.236313 -1.853056 0.693993
203 1.000000 -1.800980 1.191562 1.691954 0.056065 -0.504117 -0.638686 -0.832139
204 1.000000 0.105778 0.827257 1.127984 -0.350977 -3.015279 -2.791342 0.339816
205 1.000000 0.070910 2.723764 6.797032 -2.303669 -2.520066 -1.441842 1.140798
206 1.000000 -1.059552 3.553170 2.900068 -0.526078 1.120273 -2.212413 -0.454741
207 1.000000 -0.281576 1.221200 4.888094 -2.342716 -1.044424 -2.666962 -0.439494
208 1.000000 -2.851006 3.542170 6.758244 -0.278401 1.232504 -0.050564 -0.653213
209 1.000000 -1.398993 1.440593 4.020757 1.934603 1.934948 -2.918849 -1.339530
210 1.000000 -1.869092 1.665516 3.921348 0.873183 0.789783 -3.750610 -1.811543
211 1.000000 -1.526373 1.707704 1.119952 -2.698536 -0.406365 -1.149761 0.318139
212 1.000000 -1.705821 -0.320106 1.563655 -0.434370 0.778285 -3.591172 -1.586279
213 1.000000 -0.292829 0.580303 1.453856 -0.528062 0.721014 -2.361275 -0.599620
214 1.000000 -1.279121 2.530660 2.772290 -0.669505 -1.609022 -5.061797 -1.796373
215 1.000000 -1.588870 1.410544 2.361368 2.788004 1.292857 -1.649330 0.697815
216 1.000000 -1.605178 0.454824 3.897607 -1.080134 -0.411670 -2.919485 -2.983197
217 1.000000 -0.570511 -0.838883 -1.067146 0.524248 2.085345 -3.368380 -2.413262
218 1.000000 -2.069642 0.147401 1.513102 -1.172024 0.842903 -0.968469 -1.855086
219 1.000000 -1.889556 2.234386 1.966613 2.777082 3.289908 -3.090247 1.770102
220 1.000000 -2.820730 2.485780 0.820429 -1.505802 1.074815 0.494669 1.435663
221 1.000000 -1.845543 4.185444 4.275204 -1.428892 -3.148758 1.709547 2.400194
222 1.000000 -2.511007 1.909627 4.852686 -0.339773 -0.803103 -1.224942 0.370116
223 1.000000 -1.696625 3.024727 2.459746 -0.985175 0.186713 -4.270622 -3.363414
224 1.000000 -2.635861 1.036742 1.501969 -0.883119 -3.519206 -2.923503 -0.708797
225 1.000000 -1.520106 2.703859 2.663605 0.873843 -0.406001 -2.868345 -4.207377
226 1.000000 -0.728036 0.136097 2.392234 -3.120493 -2.583184 -3.809043 1.137027
227 1.000000 -1.161140 0.949877 3.987328 -2.637200 0.058137 -1.734758 -0.370407
228 1.000000 -2.080982 2.955487 6.167055 -0.792010 -0.084533 -2.980964 -1.935318
229 1.000000 -2.219369 2.141904 0.020133 -0.243659 2.974102 -2.548521 2.589432
230 1.000000 -1.113156 2.937384 3.384847 -2.939627 -4.471711 -1.519930 0.819630
231 1.000000 -2.316614 1.270923 1.567619 -0.988532 0.387553 -2.443469 -3.288876
232 1.000000 -1.127424 -0.219019 1.854670 -0.907766 -0.374086 -1.707159 -3.166685
233 1.000000 0.225576 0.300231 0.296426 -4.025532 -5.494397 -3.327678 -2.438397
234 1.000000 -2.524902 -0.109561 -0.178968 -1.480009 0.257547 -2.484014 -0.933334
235 1.000000 0.306152 -1.272766 3.345200 0.682525 0.095636 0.606675 3.065887
236 1.000000 -1.259975 0.857104 4.301100 2.848682 1.279303 -4.242951 -6.656291
237 1.000000 -2.384451 1.174270 2.988122 0.196573 0.860467 -2.627155 -0.193846
238 1.000000 -0.978269 -1.429862 1.876815 -1.374844 0.944014 -2.229234 -0.388569
239 1.000000 -2.061343 2.819649 2.687498 -1.088502 -4.428259 -2.537143 1.311060
240 1.000000 -1.981890 0.575052 1.189222 -0.916016 -3.259872 -2.814065 -0.577059
241 1.000000 -2.117677 -0.014371 1.791720 3.111752 2.955054 -2.472731 -1.663814
242 1.000000 -0.497829 1.356113 3.435729 -0.683647 -2.316823 -1.985941 -3.072069
243 1.000000 -0.692610 0.093991 2.810149 2.318126 1.191706 -1.222254 -0.647118
244 1.000000 -0.647730 -0.646274 -0.718550 -1.067925 -1.565273 -1.652269 1.022057
245 1.000000 -1.613673 0.892691 3.509000 -0.760054 0.093419 0.024660 -0.514200
246 1.000000 -2.162763 0.276125 2.067249 -0.948559 0.721248 -1.715936 -1.065770
247 1.000000 -1.703336 2.219734 1.887487 -2.006762 -0.065376 -3.254061 -0.837501
248 1.000000 -1.021113 -0.186690 -1.298772 -0.154863 -0.448243 -0.548062 0.590420
249 1.000000 -2.598234 3.441354 3.967038 1.454598 1.910340 -2.018585 -1.886120
250 1.000000 -0.584961 1.705415 2.855687 -1.967519 0.209568 -1.554377 1.572590
251 1.000000 -1.626715 1.692517 1.228451 -0.373953 0.008238 -3.670543 -4.598802
252 1.000000 -2.483116 0.288663 0.574640 0.002828 -2.549044 -1.185474 -0.112907
253 1.000000 -1.376195 0.982672 1.513071 1.155151 0.245782 -2.572486 -0.328016
254 1.000000 -2.476014 1.219417 1.182020 0.964576 2.579438 -1.094960 0.639957
255 1.000000 -1.890748 0.239388 -0.238485 1.648924 0.043450 -0.644385 0.977869
256 1.000000 -1.848303 2.777345 5.089394 -0.785646 -0.933674 -3.092821 -0.904685
257 1.000000 -1.482808 2.521415 4.602081 -0.446501 -1.348645 -3.256009 -0.628127
258 1.000000 -2.486634 3.554201 4.369803 -3.869892 -4.266800 -0.576677 1.698121
259 1.000000 -2.621960 -1.429286 0.277004 -0.794503 -3.088488 -3.592138 -3.215374
260 1.000000 -0.926432 1.643404 2.863698 0.885975 3.312682 -0.210859 0.381529
261 1.000000 -0.380386 -0.173790 2.376831 -0.128311 3.368759 -2.311521 -1.486356
262 1.000000 -1.282305 0.600479 0.860051 -2.661813 -3.466778 0.430243 1.030852
263 1.000000 -2.472989 3.778094 1.979219 0.303377 0.082332 -0.728195 0.148601
264 1.000000 -1.118764 -0.361591 0.809846 -2.730659 -1.914696 -3.709962 -3.606012
265 1.000000 -2.258715 0.463385 -1.518233 -1.314423 0.089759 -0.922006 -0.553370
266 1.000000 -1.514143 2.096401 5.321767 -0.224265 -2.225425 -1.264697 0.148793
267 1.000000 -0.928452 0.688763 2.824288 1.979084 0.832114 -3.605177 -4.837485
268 1.000000 -1.685250 -0.297336 -0.472407 -2.015575 -2.279288 -2.470854 0.583030
269 1.000000 -1.030753 1.083458 3.369563 -0.458508 -0.731662 -2.330982 2.071142
270 1.000000 -1.261420 2.463807 4.929288 -0.969935 -0.461686 -1.466710 2.562454
271 1.000000 -1.408024 5.103036 7.203151 2.063444 2.289339 -1.410590 -3.244195
272 1.000000 -1.304571 0.662511 4.080697 -1.619394 -1.769063 -4.489425 -0.721401
273 1.000000 -1.493407 -0.311926 1.783852 -0.938152 -1.578069 -3.812653 -2.967220
274 1.000000 -1.948636 2.813345 7.137152 -3.278442 1.296406 -2.033452 0.737812
275 1.000000 -0.659358 -0.847583 1.101222 0.645326 0.105597 -3.325890 -1.698742
276 1.000000 -1.591928 0.300950 1.451631 0.691015 -1.457499 -1.991115 -0.614940
277 1.000000 0.022410 0.715282 0.956235 -1.301675 -1.603332 -0.043201 2.203466
278 1.000000 -2.717877 -1.574275 -1.285180 -2.635302 -2.535755 -2.709590 -1.797190
279 1.000000 -1.500527 3.224341 3.168065 1.425748 1.098125 -0.317498 0.238118
280 1.000000 -1.636784 2.042142 2.901848 -0.436682 0.067439 -3.895375 -0.461585
281 1.000000 -2.675896 5.975305 5.809610 1.037408 1.315007 -0.022267 0.075439
282 1.000000 -1.135903 1.280302 4.617710 -2.775225 -3.561183 -2.427608 -2.218603
283 1.000000 -0.567121 0.955755 2.727627 -2.374326 -1.364283 -5.510340 -3.201857
284 1.000000 -1.941506 2.073510 4.713121 -1.805136 -3.882385 -4.364985 -3.140368
285 1.000000 -0.867425 -0.717333 -0.201295 -1.268471 -3.977331 -1.864298 -1.333764
286 1.000000 -1.893022 1.216775 2.077921 -0.408734 1.386028 -1.361405 1.558208
287 1.000000 -0.996542 3.151998 3.006905 0.221229 2.392427 -3.252771 -3.983904
288 1.000000 -0.462586 0.068789 4.296899 -0.758359 -1.881015 -3.778308 -1.091577
289 1.000000 -2.276776 0.398917 -1.039160 3.539531 1.838581 -0.919889 2.192674
290 1.000000 -2.541479 1.021095 5.467273 0.362457 2.287474 0.026642 0.531605
291 1.000000 -1.620928 1.777913 2.308624 0.098314 -0.778228 -1.648758 -1.654916
292 1.000000 -0.566692 0.414728 2.672632 -1.768510 -1.522649 -2.423708 -2.299346
293 1.000000 0.242909 1.906115 4.469697 -0.650325 0.123599 -2.960383 -1.637100
294 1.000000 -1.325958 -0.213440 -0.225988 -2.759391 -3.039787 -1.825060 1.071587
295 1.000000 0.010853 1.133478 2.859496 -2.280493 0.568841 -3.676343 -1.720377
296 1.000000 -1.152560 0.366790 0.184230 -0.732236 1.621710 -2.970721 -0.542735
297 1.000000 -1.390144 1.217595 2.163962 1.307045 -0.527395 -3.065109 -4.310825
298 1.000000 -2.042533 -0.327296 2.067784 -0.772468 -1.201915 -2.196536 -0.587391
299 1.000000 -1.178596 1.428869 1.723086 -1.872820 -1.631133 -0.117174 2.099938
300 1.000000 -1.568489 -1.059177 0.629548 -0.353786 -0.647905 -2.660527 -1.066459
301 1.000000 -0.675300 1.680669 1.110595 0.507157 -4.025044 -5.124784 0.099608
302 1.000000 -2.576160 2.037545 3.244806 0.042580 -1.366315 -2.025907 -1.120253
303 1.000000 -0.305990 -1.447283 -0.397345 1.071344 -1.141361 -3.713267 -2.106955
304 1.000000 -1.710131 -0.303681 -3.493960 -0.174705 2.420769 -1.441334 -0.481119
305 1.000000 -1.706169 -0.241186 0.603871 1.849049 3.865522 -5.093230 -1.937985
306 1.000000 -0.877029 -0.350238 3.600457 -0.736197 -2.581157 -1.968241 -0.536027
307 1.000000 -2.440195 -1.014207 1.350601 -3.318854 -2.378723 -3.836487 -2.033126
308 1.000000 -3.095165 1.286366 1.493511 1.380300 1.989458 -0.765700 -0.977154
309 1.000000 -1.956701 2.255012 9.456797 -2.348432 -4.425048 -2.601099 1.692216
310 1.000000 -0.405761 0.791146 4.734955 -1.434373 1.337174 -3.467071 -4.001267
311 1.000000 -1.577260 -0.753789 -0.492352 0.676691 -2.527947 -3.756136 -1.194849
312 1.000000 -1.275599 0.328090 0.351359 -2.253715 0.577897 -1.008835 -1.358457
313 1.000000 -1.596895 1.018823 2.248488 2.010104 0.918631 -2.225808 -0.872349
314 1.000000 -1.553779 1.115555 4.569641 2.044005 3.388006 -0.841285 3.276029
315 1.000000 -1.213196 -0.275878 3.502017 -1.960654 -1.077168 0.205911 1.890062
316 1.000000 -2.162258 4.926800 6.649295 0.916775 1.870851 -2.934034 1.070898
317 1.000000 -1.963352 2.820091 6.602927 -0.659526 -1.061575 -3.754341 1.220899
318 1.000000 -0.424441 1.157785 3.150477 -0.216048 -3.866762 0.543357 3.131747
319 1.000000 -1.681968 3.042680 3.626889 1.149202 -1.005678 -3.443920 -1.551830
320 1.000000 -2.790861 3.606851 5.684463 -0.762144 0.084563 -1.683566 -0.125684
321 1.000000 -2.774371 1.273162 2.334500 -0.463155 0.500352 -3.042514 -1.802002
322 1.000000 -0.793790 1.014072 0.950275 -0.859056 -0.711937 -0.565120 2.358062
323 1.000000 -1.798981 0.087494 3.154774 -1.602827 -0.926724 -2.175443 0.185314
324 1.000000 -0.667567 0.411695 0.054854 -2.885686 -2.905969 -1.442660 -0.774343
325 1.000000 -1.076786 2.112015 4.878702 -0.799622 -0.150164 -3.485390 -4.454304
326 1.000000 -1.450961 0.683722 4.371498 0.932565 0.813780 -0.985625 3.694170
327 1.000000 -2.094349 1.501872 4.054394 0.948836 1.068622 -3.863504 -4.124183
328 1.000000 -1.696501 0.440134 1.124404 -0.950596 -1.568412 -2.476413 0.050160
329 1.000000 -2.108662 2.014894 4.892316 -1.978099 -2.816759 -3.404731 -0.793687
330 1.000000 -2.585024 0.698717 0.707131 0.469654 0.300011 -1.558134 1.369877
331 1.000000 -0.815764 1.564978 2.597435 -2.599704 -3.207187 -3.482361 -1.925389
332 1.000000 -1.356545 1.754541 4.188819 -0.543647 -0.519642 -1.110120 1.433729
333 1.000000 -2.513672 0.917399 1.391934 -1.347863 -2.648566 -2.628790 -0.054371
334 1.000000 -0.070740 1.987238 2.826825 1.067914 -2.463232 -0.202543 1.325762
335 1.000000 -1.982185 1.285022 0.735237 -0.755208 1.942828 -0.035724 0.663399
336 1.000000 -0.562243 0.487246 2.163501 -1.495672 -2.372746 -1.598191 -1.937100
337 1.000000 -2.221172 -0.107112 0.403697 1.304103 -0.266383 -3.084944 -0.482220
338 1.000000 -2.612951 -1.122083 1.750871 -1.140196 -3.352866 -1.245353 0.723702
339 1.000000 -1.657450 -0.963216 1.537024 0.721487 1.808959 -5.588160 -2.204285
340 1.000000 -1.206054 -0.184972 0.963487 -0.517594 2.236038 -2.386965 -0.205614
341 1.000000 -0.771370 1.886045 3.282825 0.146957 4.661728 -1.388345 -1.956015
342 1.000000 -0.404889 -0.176543 -0.805420 -3.358744 -2.755747 -1.139193 1.078624
343 1.000000 -2.565277 0.889885 3.811633 2.196366 2.986240 -5.142343 -1.984965
344 1.000000 -1.264692 -0.714603 1.196834 0.163337 0.242195 -4.957666 -2.033584
345 1.000000 -1.650873 0.903503 1.841256 0.701152 4.558263 -1.460658 -2.405867
346 1.000000 -2.296565 0.077348 0.245463 -1.485967 -1.167608 -1.732558 -0.678155
347 1.000000 -1.144589 2.248448 5.784275 1.707765 2.807661 -3.545220 -1.862650
348 1.000000 -1.747784 2.896155 3.883178 -0.409833 0.067250 -3.774255 -0.809064
349 1.000000 -2.015309 -0.225256 1.918558 -1.094140 -2.415722 -4.200375 -3.348894
350 1.000000 -1.664967 2.992746 4.739583 -0.220962 1.289729 -1.956011 -0.182131
351 1.000000 -0.757879 1.635533 2.838196 -0.921308 -2.485814 -3.573322 -2.773656
352 1.000000 -1.192695 -0.236809 0.701260 -2.900070 -2.985614 -2.775459 -0.104444
353 1.000000 -2.258580 1.053797 1.678072 -1.146005 -1.827883 -3.636445 -2.249110
354 1.000000 -2.057361 0.976744 1.032879 2.083831 1.308453 -2.066739 0.471619
355 1.000000 -1.398967 1.683751 1.246021 -1.533349 0.818450 -2.491147 -1.155264
356 1.000000 -0.439065 0.674025 3.034835 -1.451913 -1.778882 -0.241889 2.323138
357 1.000000 -0.623919 -1.906751 0.282478 -2.373881 -2.530320 -3.147669 -0.368783
358 1.000000 -2.376373 3.074992 3.828214 -2.796511 -0.750798 -2.155018 -0.494474
359 1.000000 -1.496381 2.909356 2.387113 1.491698 1.719789 -4.467099 -2.660190
360 1.000000 -2.153615 0.338503 0.084830 2.058452 3.640557 -2.429450 -2.263837
361 1.000000 -2.596343 -0.243267 -0.852630 1.675594 1.279480 -2.155760 -1.106195
362 1.000000 -0.486541 1.814780 2.446748 -2.258794 0.640537 -2.017243 -3.945933
363 1.000000 -2.038012 0.850461 -1.368351 -0.589508 -1.369467 -2.922364 -3.578435
364 1.000000 -1.203474 -0.101645 1.924193 -1.539515 -3.113760 -2.862592 -1.354655
365 1.000000 -1.547528 1.309896 4.347352 -1.438239 -1.713014 -2.743123 -2.187275
366 1.000000 -1.741136 1.719698 2.391372 0.836829 1.926288 -1.448825 -0.193283
367 1.000000 -2.172743 0.987526 0.040411 1.142074 1.260623 -0.779310 -0.048397
368 1.000000 -2.025206 1.493790 1.146221 0.509562 -2.115918 -1.503913 0.369081
369 1.000000 -2.011888 -1.281374 2.347553 -1.959750 -1.425409 -2.864019 -0.327141
370 1.000000 -1.079053 1.562157 5.216840 0.427382 1.973411 0.356567 0.050853
371 1.000000 -0.945632 0.070170 1.439721 -2.308550 -2.355550 0.639210 3.572351
372 1.000000 -2.427300 1.112891 3.047642 -0.885540 -1.148895 -2.030810 -2.368721
373 1.000000 -0.933313 3.076260 5.090927 -1.738269 -1.552877 -3.665442 -2.247523